 this file contains the pmma polymer chains in the UAM format
 -32.2114449  32.2114449 xlo xhi
 -32.2114449  32.2114449 ylo yhi
 -32.2114449  32.2114449 zlo zhi
 13300 atoms
 13281 bonds
 20824 angles
 24567 dihedrals
 1900 impropers
 6 atom types
 6 bond types
 6 angle types
 6 dihedral types
 1 improper types



 Atoms

 1 1 3  0.109999999  32.1791359 -15.2479379 -18.3059017 0 0 0
 2 1 2  0.  30.6548368 -15.2479379 -18.0865569 0 0 0
 3 1 1  0. -31.9107478 -16.4861413 -19.1588726 1 0 0
 4 1 4  0.310000002 -31.4937538 -15.2479379 -17.0068636 1 0 0
 5 1 5 -0.370000005 -31.9811671 -14.7196624 -16.021088 1 0 0
 6 1 6 -0.310000002 -30.2074415 -15.8671461 -16.9239054 1 0 0
 7 1 1  0.25999999 -29.8050588 -15.6760706 -15.5650536 1 0 0
 8 1 3  0.109999999  30.9878427 -14.0097345 -18.9395278 0 0 0
 9 1 2  0.  29.4635436 -14.0097345 -18.7201831 0 0 0
 10 1 1  0.  31.3208487 -15.2479379 -19.7924987 0 0 0
 11 1 4  0.310000002  31.7378427 -14.0097345 -17.6404898 0 0 0
 12 1 5 -0.370000005  31.2504295 -13.481459 -16.6547142 0 0 0
 13 1 6 -0.310000002 -31.3987346 -14.6289427 -17.5575316 1 0 0
 14 1 1  0.25999999 -30.996352 -14.4378672 -16.1986798 1 0 0
 15 1 3  0.109999999  29.7965495 -12.7715311 -19.573154 0 0 0
 16 1 2  0.  28.2722504 -12.7715311 -19.3538093 0 0 0
 17 1 1  0.  30.1295555 -14.0097345 -20.4261249 0 0 0
 18 1 4  0.310000002  30.5465495 -12.7715311 -18.274116 0 0 0
 19 1 5 -0.370000005  30.0591363 -12.2432556 -17.2883404 0 0 0
 20 1 6 -0.310000002  31.8328619 -13.3907393 -18.1911578 0 0 0
 21 1 1  0.25999999 -32.1876452 -13.1996638 -16.832306 1 0 0
 22 1 3  0.109999999  28.6052564 -11.5333277 -20.2067802 0 0 0
 23 1 2  0.  27.0809572 -11.5333277 -19.9874355 0 0 0
 24 1 1  0.  28.9382623 -12.7715311 -21.0597511 0 0 0
 25 1 4  0.310000002  29.3552564 -11.5333277 -18.9077422 0 0 0
 26 1 5 -0.370000005  28.8678431 -11.0050522 -17.9219666 0 0 0
 27 1 6 -0.310000002  30.6415687 -12.1525359 -18.8247839 0 0 0
 28 1 1  0.25999999  31.0439513 -11.9614604 -17.4659321 0 0 0
 29 1 3  0.109999999  27.4139632 -10.2951243 -20.8404064 0 0 0
 30 1 2  0.  25.889664 -10.2951243 -20.6210617 0 0 0
 31 1 1  0.  27.7469692 -11.5333277 -21.6933773 0 0 0
 32 1 4  0.310000002  28.1639632 -10.2951243 -19.5413683 0 0 0
 33 1 5 -0.370000005  27.6765499 -9.7668488 -18.5555927 0 0 0
 34 1 6 -0.310000002  29.4502755 -10.9143324 -19.4584101 0 0 0
 35 1 1  0.25999999  29.8526581 -10.723257 -18.0995583 0 0 0
 36 1 3  0.109999999  26.22267 -9.05692088 -21.4740326 0 0 0
 37 1 2  0.  24.6983709 -9.05692088 -21.2546878 0 0 0
 38 1 1  0.  26.555676 -10.2951243 -22.3270035 0 0 0
 39 1 4  0.310000002  26.97267 -9.05692088 -20.1749945 0 0 0
 40 1 5 -0.370000005  26.4852567 -8.52864539 -19.1892189 0 0 0
 41 1 6 -0.310000002  28.2589823 -9.67612904 -20.0920363 0 0 0
 42 1 1  0.25999999  28.661365 -9.4850536 -18.7331845 0 0 0
 43 1 3  0.109999999  25.0313768 -7.81871748 -22.1076587 0 0 0
 44 1 2  0.  23.5070777 -7.81871748 -21.888314 0 0 0
 45 1 1  0.  25.3643828 -9.05692088 -22.9606296 0 0 0
 46 1 4  0.310000002  25.7813768 -7.81871748 -20.8086207 0 0 0
 47 1 5 -0.370000005  25.2939636 -7.29044199 -19.8228451 0 0 0
 48 1 6 -0.310000002  27.0676892 -8.43792563 -20.7256625 0 0 0
 49 1 1  0.25999999  27.4700718 -8.24685019 -19.3668107 0 0 0
 50 1 3  0.109999999  23.1165989 -6.33987495 -22.0676214 0 0 0
 51 1 2  0.  23.3403766 -6.9213049 -23.475976 0 0 0
 52 1 1  0.  21.8931295 -7.06037719 -21.4713002 0 0 0
 53 1 4  0.310000002  24.3313762 -6.49446509 -21.2013548 0 0 0
 54 1 5 -0.370000005  25.4428491 -6.49799704 -21.7043615 0 0 0
 55 1 6 -0.310000002  24.1866722 -6.63770114 -19.785924 0 0 0
 56 1 1  0.25999999  25.5259751 -6.75825589 -19.2994735 0 0 0
 57 1 3  0.109999999  22.9498979 -5.44246237 -23.6552834 0 0 0
 58 1 2  0.  23.1736756 -6.02389232 -25.0636381 0 0 0
 59 1 1  0.  21.7264285 -6.16296461 -23.0589622 0 0 0
 60 1 4  0.310000002  24.1646752 -5.59705251 -22.7890168 0 0 0
 61 1 5 -0.370000005  25.2761481 -5.60058446 -23.2920235 0 0 0
 62 1 6 -0.310000002  24.0199711 -5.74028857 -21.373586 0 0 0
 63 1 1  0.25999999  25.359274 -5.86084331 -20.8871355 0 0 0
 64 1 3  0.109999999  22.7831969 -4.5450498 -25.2429454 0 0 0
 65 1 2  0.  23.0069746 -5.12647975 -26.6513001 0 0 0
 66 1 1  0.  21.5597274 -5.26555203 -24.6466242 0 0 0
 67 1 4  0.310000002  23.9979742 -4.69963993 -24.3766788 0 0 0
 68 1 5 -0.370000005  25.109447 -4.70317189 -24.8796855 0 0 0
 69 1 6 -0.310000002  23.8532701 -4.84287599 -22.961248 0 0 0
 70 1 1  0.25999999  25.192573 -4.96343073 -22.4747975 0 0 0
 71 1 3  0.109999999  22.6164958 -3.64763722 -26.8306075 0 0 0
 72 1 2  0.  22.8402735 -4.22906717 -28.2389621 0 0 0
 73 1 1  0.  21.3930264 -4.36813946 -26.2342862 0 0 0
 74 1 4  0.310000002  23.8312731 -3.80222735 -25.9643408 0 0 0
 75 1 5 -0.370000005  24.942746 -3.80575931 -26.4673476 0 0 0
 76 1 6 -0.310000002  23.686569 -3.94546341 -24.54891 0 0 0
 77 1 1  0.25999999  25.0258719 -4.06601816 -24.0624595 0 0 0
 78 1 3  0.109999999  22.4497948 -2.75022464 -28.4182695 0 0 0
 79 1 2  0.  22.6735725 -3.33165459 -29.8266241 0 0 0
 80 1 1  0.  21.2263253 -3.47072688 -27.8219482 0 0 0
 81 1 4  0.310000002  23.6645721 -2.90481478 -27.5520028 0 0 0
 82 1 5 -0.370000005  24.776045 -2.90834673 -28.0550096 0 0 0
 83 1 6 -0.310000002  23.519868 -3.04805083 -26.136572 0 0 0
 84 1 1  0.25999999  24.8591709 -3.16860558 -25.6501216 0 0 0
 85 1 3  0.109999999  22.2830938 -1.85281207 -30.0059315 0 0 0
 86 1 2  0.  22.5068715 -2.43424201 -31.4142861 0 0 0
 87 1 1  0.  21.0596243 -2.5733143 -29.4096103 0 0 0
 88 1 4  0.310000002  23.4978711 -2.0074022 -29.1396649 0 0 0
 89 1 5 -0.370000005  24.6093439 -2.01093416 -29.6426716 0 0 0
 90 1 6 -0.310000002  23.353167 -2.15063826 -27.724234 0 0 0
 91 1 1  0.25999999  24.6924699 -2.271193 -27.2377836 0 0 0
 92 1 3  0.109999999  22.1163927 -0.955399489 -31.5935935 0 0 0
 93 1 2  0.  22.3401704 -1.53682944  31.4209416 0 0 -1
 94 1 1  0.  20.8929233 -1.67590173 -30.9972723 0 0 0
 95 1 4  0.310000002  23.33117 -1.10998962 -30.7273269 0 0 0
 96 1 5 -0.370000005  24.4426429 -1.11352158 -31.2303336 0 0 0
 97 1 6 -0.310000002  23.1864659 -1.25322568 -29.3118961 0 0 0
 98 1 1  0.25999999  24.5257688 -1.37378043 -28.8254456 0 0 0
 99 1 3  0.109999999  21.9496917 -0.057986912  31.2416342 0 0 -1
 100 1 2  0.  22.1734694 -0.639416861  29.8332796 0 0 -1
 101 1 1  0.  20.7262222 -0.77848915  31.8379554 0 0 -1
 102 1 4  0.310000002  23.164469 -0.212577048  32.1079008 0 0 -1
 103 1 5 -0.370000005  24.2759419 -0.216109003  31.6048941 0 0 -1
 104 1 6 -0.310000002  23.0197649 -0.355813104 -30.8995581 0 0 0
 105 1 1  0.25999999  24.3590678 -0.476367849 -30.4131076 0 0 0
 106 1 3  0.109999999  21.8723324  0.836849315  29.5146031 0 0 -1
 107 1 2  0.  20.6765948  0.296353962  30.3206282 0 0 -1
 108 1 1  0.  21.8909981  0.0805275968  28.1732497 0 0 -1
 109 1 4  0.310000002  23.1640406  0.680040721  30.260861 0 0 -1
 110 1 5 -0.370000005  23.1712141  0.708353473  31.4805114 0 0 -1
 111 1 6 -0.310000002  24.387061  0.49736356  29.5427034 0 0 -1
 112 1 1  0.25999999  25.3863003  0.386615237  30.5596377 0 0 -1
 113 1 3  0.109999999  20.3754578  1.77262014  30.0019517 0 0 -1
 114 1 2  0.  19.1797202  1.23212479  30.8079768 0 0 -1
 115 1 1  0.  20.3941235  1.01629842  28.6605983 0 0 -1
 116 1 4  0.310000002  21.667166  1.61581154  30.7482096 0 0 -1
 117 1 5 -0.370000005  21.6743395  1.6441243  31.96786 0 0 -1
 118 1 6 -0.310000002  22.8901864  1.43313438  30.030052 0 0 -1
 119 1 1  0.25999999  23.8894258  1.32238606  31.0469863 0 0 -1
 120 1 3  0.109999999  18.8785832  2.70839096  30.4893003 0 0 -1
 121 1 2  0.  17.6828456  2.16789561  31.2953254 0 0 -1
 122 1 1  0.  18.8972489  1.95206924  29.1479469 0 0 -1
 123 1 4  0.310000002  20.1702914  2.55158237  31.2355582 0 0 -1
 124 1 5 -0.370000005  20.1774649  2.57989512 -31.9676811 0 0 0
 125 1 6 -0.310000002  21.3933119  2.36890521  30.5174006 0 0 -1
 126 1 1  0.25999999  22.3925512  2.25815688  31.5343349 0 0 -1
 127 1 3  0.109999999  17.3817086  3.64416178  30.976649 0 0 -1
 128 1 2  0.  16.185971  3.10366643  31.782674 0 0 -1
 129 1 1  0.  17.4003743  2.88784007  29.6352955 0 0 -1
 130 1 4  0.310000002  18.6734168  3.48735319  31.7229068 0 0 -1
 131 1 5 -0.370000005  18.6805903  3.51566594 -31.4803325 0 0 0
 132 1 6 -0.310000002  19.8964373  3.30467603  31.0047492 0 0 -1
 133 1 1  0.25999999  20.8956766  3.19392771  32.0216835 0 0 -1
 134 1 3  0.109999999  15.884834  4.57993261  31.4639976 0 0 -1
 135 1 2  0.  14.6890964  4.03943725 -32.1528671 0 0 0
 136 1 1  0.  15.9034997  3.82361089  30.1226441 0 0 -1
 137 1 4  0.310000002  17.1765422  4.42312401  32.2102554 0 0 -1
 138 1 5 -0.370000005  17.1837157  4.45143677 -30.9929839 0 0 0
 139 1 6 -0.310000002  18.3995627  4.24044685  31.4920978 0 0 -1
 140 1 1  0.25999999  19.398802  4.12969853 -31.9138576 0 0 0
 141 1 3  0.109999999  14.3879594  5.51570343  31.9513462 0 0 -1
 142 1 2  0.  13.1922218  4.97520808 -31.6655185 0 0 0
 143 1 1  0.  14.4066251  4.75938171  30.6099927 0 0 -1
 144 1 4  0.310000002  15.6796676  5.35889484 -31.7252857 0 0 0
 145 1 5 -0.370000005  15.6868411  5.38720759 -30.5056353 0 0 0
 146 1 6 -0.310000002  16.9026881  5.17621768  31.9794464 0 0 -1
 147 1 1  0.25999999  17.9019274  5.06546935 -31.426509 0 0 0
 148 1 3  0.109999999  12.8910848  6.45147425 -31.9841949 0 0 0
 149 1 2  0.  11.6953473  5.9109789 -31.1781699 0 0 0
 150 1 1  0.  12.9097505  5.69515254  31.0973414 0 0 -1
 151 1 4  0.310000002  14.1827931  6.29466566 -31.2379371 0 0 0
 152 1 5 -0.370000005  14.1899665  6.32297841 -30.0182867 0 0 0
 153 1 6 -0.310000002  15.4058135  6.1119885 -31.9560947 0 0 0
 154 1 1  0.25999999  16.4050528  6.00124018 -30.9391604 0 0 0
 155 1 3  0.109999999  11.3942102  7.38724508 -31.4968463 0 0 0
 156 1 2  0.  10.1984727  6.84674972 -30.6908212 0 0 0
 157 1 1  0.  11.4128759  6.63092336  31.58469 0 0 -1
 158 1 4  0.310000002  12.6859185  7.23043648 -30.7505884 0 0 0
 159 1 5 -0.370000005  12.6930919  7.25874924 -29.530938 0 0 0
 160 1 6 -0.310000002  13.9089389  7.04775932 -31.468746 0 0 0
 161 1 1  0.25999999  14.9081782  6.937011 -30.4518117 0 0 0
 162 1 3  0.109999999  9.58345406  8.11229134 -30.0649167 0 0 0
 163 1 2  0.  9.14611419  8.08094667 -31.5411793 0 0 0
 164 1 1  0.  8.92684771  6.9026254 -29.3741371 0 0 0
 165 1 4  0.310000002  11.0768045  8.09085532 -29.9254717 0 0 0
 166 1 5 -0.370000005  11.7776497  8.58486497 -30.7933257 0 0 0
 167 1 6 -0.310000002  11.6789829  7.49137555 -28.7752954 0 0 0
 168 1 1  0.25999999  13.0847021  7.65351775 -28.9816034 0 0 0
 169 1 3  0.109999999  8.53109558  9.34648828 -30.9152747 0 0 0
 170 1 2  0.  8.09375572  9.31514361  32.0313524 0 0 -1
 171 1 1  0.  7.87448924  8.13682235 -30.2244951 0 0 0
 172 1 4  0.310000002  10.024446  9.32505227 -30.7758297 0 0 0
 173 1 5 -0.370000005  10.7252913  9.81906192 -31.6436837 0 0 0
 174 1 6 -0.310000002  10.6266244  8.7255725 -29.6256534 0 0 0
 175 1 1  0.25999999  12.0323437  8.8877147 -29.8319615 0 0 0
 176 1 3  0.109999999  7.47873711  10.5806852 -31.7656327 0 0 0
 177 1 2  0.  7.04139724  10.5493406  31.1809943 0 0 -1
 178 1 1  0.  6.82213076  9.37101929 -31.0748532 0 0 0
 179 1 4  0.310000002  8.97208752  10.5592492 -31.6261877 0 0 0
 180 1 5 -0.370000005  9.67293279  11.0532589  31.928848 0 0 -1
 181 1 6 -0.310000002  9.57426592  9.95976944 -30.4760115 0 0 0
 182 1 1  0.25999999  10.9799852  10.1219116 -30.6823195 0 0 0
 183 1 3  0.109999999  6.42637864  11.8148822  31.8068989 0 0 -1
 184 1 2  0.  5.98903877  11.7835375  30.3306363 0 0 -1
 185 1 1  0.  5.76977229  10.6052162 -31.9252112 0 0 0
 186 1 4  0.310000002  7.91972905  11.7934462  31.9463439 0 0 -1
 187 1 5 -0.370000005  8.62057432  12.2874558  31.0784899 0 0 -1
 188 1 6 -0.310000002  8.52190744  11.1939664 -31.3263695 0 0 0
 189 1 1  0.25999999  9.92762672  11.3561086 -31.5326776 0 0 0
 190 1 3  0.109999999  5.37402017  13.0490791  30.9565409 0 0 -1
 191 1 2  0.  4.9366803  13.0177344  29.4802783 0 0 -1
 192 1 1  0.  4.71741382  11.8394132  31.6473205 0 0 -1
 193 1 4  0.310000002  6.86737058  13.0276431  31.0959859 0 0 -1
 194 1 5 -0.370000005  7.56821584  13.5216527  30.2281319 0 0 -1
 195 1 6 -0.310000002  7.46954897  12.4281633 -32.1767276 0 0 0
 196 1 1  0.25999999  8.87526825  12.5903055  32.0398541 0 0 -1
 197 1 3  0.109999999  4.3216617  14.2832761  30.1061828 0 0 -1
 198 1 2  0.  3.88432183  14.2519314  28.6299202 0 0 -1
 199 1 1  0.  3.66505535  13.0736101  30.7969624 0 0 -1
 200 1 4  0.310000002  5.81501211  14.26184  30.2456278 0 0 -1
 201 1 5 -0.370000005  6.51585737  14.7558497  29.3777738 0 0 -1
 202 1 6 -0.310000002  6.4171905  13.6623603  31.3958041 0 0 -1
 203 1 1  0.25999999  7.82290977  13.8245025  31.189496 0 0 -1
 204 1 3  0.109999999  3.26930323  15.517473  29.2558248 0 0 -1
 205 1 2  0.  2.83196336  15.4861283  27.7795622 0 0 -1
 206 1 1  0.  2.61269688  14.3078071  29.9466044 0 0 -1
 207 1 4  0.310000002  4.76265364  15.496037  29.3952698 0 0 -1
 208 1 5 -0.370000005  5.4634989  15.9900466  28.5274158 0 0 -1
 209 1 6 -0.310000002  5.36483203  14.8965572  30.5454461 0 0 -1
 210 1 1  0.25999999  6.7705513  15.0586994  30.339138 0 0 -1
 211 1 3  0.109999999  2.21694475  16.7516699  28.4054667 0 0 -1
 212 1 2  0.  1.77960488  16.7203253  26.9292041 0 0 -1
 213 1 1  0.  1.56033841  15.542004  29.0962463 0 0 -1
 214 1 4  0.310000002  3.71029516  16.7302339  28.5449118 0 0 -1
 215 1 5 -0.370000005  4.41114043  17.2242436  27.6770578 0 0 -1
 216 1 6 -0.310000002  4.31247356  16.1307542  29.695088 0 0 -1
 217 1 1  0.25999999  5.71819283  16.2928964  29.48878 0 0 -1
 218 1 3  0.109999999  1.1717567  18.0532367  27.4040385 0 0 -1
 219 1 2  0.  0.620488949  16.9514796  28.3280705 0 0 -1
 220 1 1  0.  0.614841999  17.7802263  25.9944601 0 0 -1
 221 1 4  0.310000002  2.67128145  18.0898119  27.413399 0 0 -1
 222 1 5 -0.370000005  3.28349753  17.7511037  28.4128331 0 0 -1
 223 1 6 -0.310000002  3.38323109  18.5216908  26.250855 0 0 -1
 224 1 1  0.25999999  4.76165743  18.4274016  26.6195691 0 0 -1
 225 1 3  0.109999999  0.0126407612  18.284391  28.8029049 0 0 -1
 226 1 2  0. -0.538626987  17.1826339  29.7269369 0 0 -1
 227 1 1  0. -0.544273937  18.0113807  27.3933265 0 0 -1
 228 1 4  0.310000002  1.51216552  18.3209663  28.8122654 0 0 -1
 229 1 5 -0.370000005  2.12438159  17.982258  29.8116994 0 0 -1
 230 1 6 -0.310000002  2.22411515  18.7528451  27.6497214 0 0 -1
 231 1 1  0.25999999  3.6025415  18.6585559  28.0184355 0 0 -1
 232 1 3  0.109999999 -1.14647517  18.5155454  30.2017713 0 0 -1
 233 1 2  0. -1.69774292  17.4137883  31.1258033 0 0 -1
 234 1 1  0. -1.70338987  18.242535  28.7921928 0 0 -1
 235 1 4  0.310000002  0.353049582  18.5521206  30.2111318 0 0 -1
 236 1 5 -0.370000005  0.965265659  18.2134123  31.2105658 0 0 -1
 237 1 6 -0.310000002  1.06499921  18.9839994  29.0485878 0 0 -1
 238 1 1  0.25999999  2.44342556  18.8897102  29.4173019 0 0 -1
 239 1 3  0.109999999 -2.30559111  18.7466997  31.6006377 0 0 -1
 240 1 2  0. -2.85685886  17.6449426 -31.89822 0 0 0
 241 1 1  0. -2.86250581  18.4736893  30.1910592 0 0 -1
 242 1 4  0.310000002 -0.806066353  18.7832749  31.6099982 0 0 -1
 243 1 5 -0.370000005 -0.193850277  18.4445667 -31.8134575 0 0 0
 244 1 6 -0.310000002 -0.0941167213  19.2151538  30.4474541 0 0 -1
 245 1 1  0.25999999  1.28430963  19.1208646  30.8161683 0 0 -1
 246 1 3  0.109999999 -3.46470705  18.9778541 -31.4233857 0 0 0
 247 1 2  0. -4.01597479  17.876097 -30.4993537 0 0 0
 248 1 1  0. -4.02162174  18.7048437  31.5899256 0 0 -1
 249 1 4  0.310000002 -1.96518229  19.0144293 -31.4140251 0 0 0
 250 1 5 -0.370000005 -1.35296621  18.675721 -30.4145911 0 0 0
 251 1 6 -0.310000002 -1.25323266  19.4463081  31.8463205 0 0 -1
 252 1 1  0.25999999  0.125193691  19.3520189 -32.207855 0 0 0
 253 1 3  0.109999999 -4.62382298  19.2090084 -30.0245193 0 0 0
 254 1 2  0. -5.17509073  18.1072513 -29.1004873 0 0 0
 255 1 1  0. -5.18073768  18.935998 -31.4340977 0 0 0
 256 1 4  0.310000002 -3.12429822  19.2455836 -30.0151588 0 0 0
 257 1 5 -0.370000005 -2.51208215  18.9068754 -29.0157247 0 0 0
 258 1 6 -0.310000002 -2.41234859  19.6774625 -31.1777028 0 0 0
 259 1 1  0.25999999 -1.03392224  19.5831732 -30.8089886 0 0 0
 260 1 3  0.109999999 -5.78293892  19.4401627 -28.6256529 0 0 0
 261 1 2  0. -6.33420667  18.3384056 -27.7016209 0 0 0
 262 1 1  0. -6.33985361  19.1671524 -30.0352313 0 0 0
 263 1 4  0.310000002 -4.28341416  19.4767379 -28.6162924 0 0 0
 264 1 5 -0.370000005 -3.67119808  19.1380297 -27.6168583 0 0 0
 265 1 6 -0.310000002 -3.57146453  19.9086168 -29.7788364 0 0 0
 266 1 1  0.25999999 -2.19303818  19.8143276 -29.4101222 0 0 0
 267 1 3  0.109999999 -6.94205485  19.6713171 -27.2267865 0 0 0
 268 1 2  0. -7.4933226  18.56956 -26.3027545 0 0 0
 269 1 1  0. -7.49896955  19.3983067 -28.6363649 0 0 0
 270 1 4  0.310000002 -5.4425301  19.7078923 -27.217426 0 0 0
 271 1 5 -0.370000005 -4.83031402  19.369184 -26.2179919 0 0 0
 272 1 6 -0.310000002 -4.73058046  20.1397711 -28.37997 0 0 0
 273 1 1  0.25999999 -3.35215412  20.0454819 -28.0112559 0 0 0
 274 1 3  0.109999999 -7.87054645  19.3309502 -25.018392 0 0 0
 275 1 2  0. -8.97904653  19.6100971 -26.0503341 0 0 0
 276 1 1  0. -7.93130537  17.8283926 -24.6863847 0 0 0
 277 1 4  0.310000002 -6.51917818  19.7346791 -25.5290843 0 0 0
 278 1 5 -0.370000005 -6.4166371  20.6590208 -26.3186906 0 0 0
 279 1 6 -0.310000002 -5.35106518  19.0361178 -25.0904224 0 0 0
 280 1 1  0.25999999 -4.27129978  19.6819545 -25.7700556 0 0 0
 281 1 3  0.109999999 -9.35627038  20.3714874 -24.7659716 0 0 0
 282 1 2  0. -10.4647705  20.6506343 -25.7979138 0 0 0
 283 1 1  0. -9.4170293  18.8689297 -24.4339643 0 0 0
 284 1 4  0.310000002 -8.00490211  20.7752163 -25.276664 0 0 0
 285 1 5 -0.370000005 -7.90236103  21.6995579 -26.0662702 0 0 0
 286 1 6 -0.310000002 -6.83678911  20.0766549 -24.838002 0 0 0
 287 1 1  0.25999999 -5.75702371  20.7224917 -25.5176353 0 0 0
 288 1 3  0.109999999 -10.8419943  21.4120246 -24.5135513 0 0 0
 289 1 2  0. -11.9504944  21.6911715 -25.5454934 0 0 0
 290 1 1  0. -10.9027532  19.9094669 -24.181544 0 0 0
 291 1 4  0.310000002 -9.49062604  21.8157535 -25.0242436 0 0 0
 292 1 5 -0.370000005 -9.38808495  22.7400951 -25.8138499 0 0 0
 293 1 6 -0.310000002 -8.32251304  21.1171921 -24.5855816 0 0 0
 294 1 1  0.25999999 -7.24274764  21.7630288 -25.2652149 0 0 0
 295 1 3  0.109999999 -12.3277182  22.4525618 -24.2611309 0 0 0
 296 1 2  0. -13.4362183  22.7317087 -25.293073 0 0 0
 297 1 1  0. -12.3884772  20.9500041 -23.9291236 0 0 0
 298 1 4  0.310000002 -10.97635  22.8562906 -24.7718232 0 0 0
 299 1 5 -0.370000005 -10.8738089  23.7806323 -25.5614295 0 0 0
 300 1 6 -0.310000002 -9.80823697  22.1577293 -24.3331613 0 0 0
 301 1 1  0.25999999 -8.72847157  22.803566 -25.0127945 0 0 0
 302 1 3  0.109999999 -13.8134422  23.4930989 -24.0087105 0 0 0
 303 1 2  0. -14.9219422  23.7722458 -25.0406526 0 0 0
 304 1 1  0. -13.8742011  21.9905413 -23.6767032 0 0 0
 305 1 4  0.310000002 -12.4620739  23.8968278 -24.5194029 0 0 0
 306 1 5 -0.370000005 -12.3595328  24.8211695 -25.3090091 0 0 0
 307 1 6 -0.310000002 -11.2939609  23.1982665 -24.0807409 0 0 0
 308 1 1  0.25999999 -10.2141955  23.8441032 -24.7603742 0 0 0
 309 1 3  0.109999999 -15.2991661  24.5336361 -23.7562901 0 0 0
 310 1 2  0. -16.4076662  24.812783 -24.7882323 0 0 0
 311 1 1  0. -15.359925  23.0310785 -23.4242829 0 0 0
 312 1 4  0.310000002 -13.9477978  24.937365 -24.2669825 0 0 0
 313 1 5 -0.370000005 -13.8452567  25.8617066 -25.0565888 0 0 0
 314 1 6 -0.310000002 -12.7796848  24.2388037 -23.8283205 0 0 0
 315 1 1  0.25999999 -11.6999194  24.8846404 -24.5079538 0 0 0
 316 1 3  0.109999999 -16.78489  25.5741733 -23.5038698 0 0 0
 317 1 2  0. -17.8933901  25.8533202 -24.5358119 0 0 0
 318 1 1  0. -16.8456489  24.0716156 -23.1718625 0 0 0
 319 1 4  0.310000002 -15.4335218  25.9779022 -24.0145621 0 0 0
 320 1 5 -0.370000005 -15.3309807  26.9022438 -24.8041684 0 0 0
 321 1 6 -0.310000002 -14.2654088  25.2793408 -23.5759002 0 0 0
 322 1 1  0.25999999 -13.1856434  25.9251775 -24.2555334 0 0 0
 323 1 3  0.109999999 -18.270614  26.6147105 -23.2514494 0 0 0
 324 1 2  0. -19.379114  26.8938574 -24.2833915 0 0 0
 325 1 1  0. -18.3313729  25.1121528 -22.9194421 0 0 0
 326 1 4  0.310000002 -16.9192457  27.0184393 -23.7621417 0 0 0
 327 1 5 -0.370000005 -16.8167046  27.942781 -24.551748 0 0 0
 328 1 6 -0.310000002 -15.7511327  26.319878 -23.3234798 0 0 0
 329 1 1  0.25999999 -14.6713673  26.9657147 -24.0031131 0 0 0
 330 1 3  0.109999999 -19.8344205  27.7636088 -23.0968721 0 0 0
 331 1 2  0. -19.7022962  26.3210477 -22.5742246 0 0 0
 332 1 1  0. -20.9807777  27.7676176 -24.1251956 0 0 0
 333 1 4  0.310000002 -18.5502882  28.2606461 -23.6918158 0 0 0
 334 1 5 -0.370000005 -17.4826142  27.8456001 -23.2720427 0 0 0
 335 1 6 -0.310000002 -18.5775357  29.2209766 -24.7510245 0 0 0
 336 1 1  0.25999999 -17.2005623  29.4543554 -25.0582353 0 0 0
 337 1 3  0.109999999 -20.1576027  27.1907991 -21.3877052 0 0 0
 338 1 2  0. -20.0254783  25.7482379 -20.8650577 0 0 0
 339 1 1  0. -21.3039598  27.1948079 -22.4160287 0 0 0
 340 1 4  0.310000002 -18.8734703  27.6878363 -21.9826488 0 0 0
 341 1 5 -0.370000005 -17.8057964  27.2727904 -21.5628758 0 0 0
 342 1 6 -0.310000002 -18.9007178  28.6481669 -23.0418575 0 0 0
 343 1 1  0.25999999 -17.5237445  28.8815457 -23.3490684 0 0 0
 344 1 3  0.109999999 -20.4807848  26.6179894 -19.6785382 0 0 0
 345 1 2  0. -20.3486604  25.1754282 -19.1558908 0 0 0
 346 1 1  0. -21.6271419  26.6219982 -20.7068618 0 0 0
 347 1 4  0.310000002 -19.1966524  27.1150266 -20.2734819 0 0 0
 348 1 5 -0.370000005 -18.1289785  26.6999806 -19.8537089 0 0 0
 349 1 6 -0.310000002 -19.2238999  28.0753571 -21.3326906 0 0 0
 350 1 1  0.25999999 -17.8469266  28.308736 -21.6399015 0 0 0
 351 1 3  0.109999999 -20.8039669  26.0451797 -17.9693713 0 0 0
 352 1 2  0. -20.6718425  24.6026185 -17.4467238 0 0 0
 353 1 1  0. -21.950324  26.0491885 -18.9976948 0 0 0
 354 1 4  0.310000002 -19.5198346  26.5422169 -18.564315 0 0 0
 355 1 5 -0.370000005 -18.4521606  26.1271709 -18.144542 0 0 0
 356 1 6 -0.310000002 -19.5470821  27.5025474 -19.6235237 0 0 0
 357 1 1  0.25999999 -18.1701087  27.7359263 -19.9307345 0 0 0
 358 1 3  0.109999999 -21.1271491  25.47237 -16.2602044 0 0 0
 359 1 2  0. -20.9950247  24.0298088 -15.7375569 0 0 0
 360 1 1  0. -22.2735062  25.4763788 -17.2885279 0 0 0
 361 1 4  0.310000002 -19.8430167  25.9694072 -16.855148 0 0 0
 362 1 5 -0.370000005 -18.7753428  25.5543612 -16.435375 0 0 0
 363 1 6 -0.310000002 -19.8702642  26.9297377 -17.9143568 0 0 0
 364 1 1  0.25999999 -18.4932908  27.1631166 -18.2215676 0 0 0
 365 1 3  0.109999999 -21.4503312  24.8995603 -14.5510375 0 0 0
 366 1 2  0. -21.3182068  23.4569991 -14.02839 0 0 0
 367 1 1  0. -22.5966883  24.9035691 -15.579361 0 0 0
 368 1 4  0.310000002 -20.1661988  25.3965975 -15.1459811 0 0 0
 369 1 5 -0.370000005 -19.0985249  24.9815515 -14.7262081 0 0 0
 370 1 6 -0.310000002 -20.1934463  26.356928 -16.2051898 0 0 0
 371 1 1  0.25999999 -18.816473  26.5903069 -16.5124007 0 0 0
 372 1 3  0.109999999 -21.7735133  24.3267505 -12.8418705 0 0 0
 373 1 2  0. -21.6413889  22.8841894 -12.319223 0 0 0
 374 1 1  0. -22.9198704  24.3307593 -13.8701941 0 0 0
 375 1 4  0.310000002 -20.489381  24.8237878 -13.4368142 0 0 0
 376 1 5 -0.370000005 -19.421707  24.4087418 -13.0170412 0 0 0
 377 1 6 -0.310000002 -20.5166284  25.7841183 -14.4960229 0 0 0
 378 1 1  0.25999999 -19.1396551  26.0174971 -14.8032337 0 0 0
 379 1 3  0.109999999 -22.0966954  23.7539408 -11.1327036 0 0 0
 380 1 2  0. -21.9645711  22.3113797 -10.6100561 0 0 0
 381 1 1  0. -23.2430526  23.7579496 -12.1610271 0 0 0
 382 1 4  0.310000002 -20.8125631  24.2509781 -11.7276472 0 0 0
 383 1 5 -0.370000005 -19.7448891  23.8359321 -11.3078742 0 0 0
 384 1 6 -0.310000002 -20.8398106  25.2113086 -12.786856 0 0 0
 385 1 1  0.25999999 -19.4628372  25.4446874 -13.0940668 0 0 0
 386 1 3  0.109999999 -21.7438671  22.4944468 -9.09698764 0 0 0
 387 1 2  0. -23.2451128  22.7110457 -9.36334479 0 0 0
 388 1 1  0. -21.4358829  21.021151 -9.42278695 0 0 0
 389 1 4  0.310000002 -20.8940139  23.4326202 -9.90171123 0 0 0
 390 1 5 -0.370000005 -21.3203091  24.5351323 -10.2036048 0 0 0
 391 1 6 -0.310000002 -19.5841465  23.0347236 -10.3150224 0 0 0
 392 1 1  0.25999999 -19.0826139  24.1573659 -11.0451176 0 0 0
 393 1 3  0.109999999 -23.0244088  22.8941129 -7.85027633 0 0 0
 394 1 2  0. -24.5256546  23.1107118 -8.11663348 0 0 0
 395 1 1  0. -22.7164246  21.4208171 -8.17607564 0 0 0
 396 1 4  0.310000002 -22.1745556  23.8322863 -8.65499992 0 0 0
 397 1 5 -0.370000005 -22.6008508  24.9347984 -8.95689345 0 0 0
 398 1 6 -0.310000002 -20.8646883  23.4343897 -9.06831106 0 0 0
 399 1 1  0.25999999 -20.3631556  24.557032 -9.79840632 0 0 0
 400 1 3  0.109999999 -24.3049506  23.293779 -6.60356502 0 0 0
 401 1 2  0. -25.8061963  23.5103779 -6.86992217 0 0 0
 402 1 1  0. -23.9969664  21.8204832 -6.92936433 0 0 0
 403 1 4  0.310000002 -23.4550974  24.2319524 -7.4082886 0 0 0
 404 1 5 -0.370000005 -23.8813926  25.3344645 -7.71018214 0 0 0
 405 1 6 -0.310000002 -22.14523  23.8340558 -7.82159975 0 0 0
 406 1 1  0.25999999 -21.6436974  24.956698 -8.55169501 0 0 0
 407 1 3  0.109999999 -25.5854923  23.6934451 -5.35685371 0 0 0
 408 1 2  0. -27.0867381  23.910044 -5.62321086 0 0 0
 409 1 1  0. -25.2775081  22.2201493 -5.68265301 0 0 0
 410 1 4  0.310000002 -24.7356391  24.6316185 -6.16157729 0 0 0
 411 1 5 -0.370000005 -25.1619343  25.7341306 -6.46347083 0 0 0
 412 1 6 -0.310000002 -23.4257718  24.2337219 -6.57488844 0 0 0
 413 1 1  0.25999999 -22.9242391  25.3563641 -7.3049837 0 0 0
 414 1 3  0.109999999 -26.8660341  24.0931112 -4.11014239 0 0 0
 415 1 2  0. -28.3672798  24.3097101 -4.37649955 0 0 0
 416 1 1  0. -26.5580498  22.6198153 -4.4359417 0 0 0
 417 1 4  0.310000002 -26.0161809  25.0312846 -4.91486598 0 0 0
 418 1 5 -0.370000005 -26.442476  26.1337967 -5.21675951 0 0 0
 419 1 6 -0.310000002 -24.7063135  24.6333879 -5.32817713 0 0 0
 420 1 1  0.25999999 -24.2047809  25.7560302 -6.05827239 0 0 0
 421 1 3  0.109999999 -28.1465758  24.4927772 -2.86343108 0 0 0
 422 1 2  0. -29.6478216  24.7093762 -3.12978824 0 0 0
 423 1 1  0. -27.8385916  23.0194814 -3.18923039 0 0 0
 424 1 4  0.310000002 -27.2967226  25.4309507 -3.66815467 0 0 0
 425 1 5 -0.370000005 -27.7230178  26.5334627 -3.9700482 0 0 0
 426 1 6 -0.310000002 -25.9868553  25.033054 -4.08146581 0 0 0
 427 1 1  0.25999999 -25.4853226  26.1556963 -4.81156107 0 0 0
 428 1 3  0.109999999 -29.4271176  24.8924433 -1.61671977 0 0 0
 429 1 2  0. -30.9283633  25.1090423 -1.88307692 0 0 0
 430 1 1  0. -29.1191333  23.4191475 -1.94251908 0 0 0
 431 1 4  0.310000002 -28.5772644  25.8306167 -2.42144336 0 0 0
 432 1 5 -0.370000005 -29.0035595  26.9331288 -2.72333689 0 0 0
 433 1 6 -0.310000002 -27.267397  25.4327201 -2.8347545 0 0 0
 434 1 1  0.25999999 -26.7658644  26.5553624 -3.56484976 0 0 0
 435 1 3  0.109999999 -30.7076593  25.2921094 -0.37000846 0 0 0
 436 1 2  0. -32.2089051  25.5087084 -0.636365613 0 0 0
 437 1 1  0. -30.3996751  23.8188136 -0.695807768 0 0 0
 438 1 4  0.310000002 -29.8578061  26.2302828 -1.17473205 0 0 0
 439 1 5 -0.370000005 -30.2841013  27.3327949 -1.47662558 0 0 0
 440 1 6 -0.310000002 -28.5479388  25.8323862 -1.58804319 0 0 0
 441 1 1  0.25999999 -28.0464061  26.9550285 -2.31813845 0 0 0
 442 1 3  0.109999999 -32.1179777  25.7945556  0.874138796 0 0 0
 443 1 2  0. -31.5572533  24.3781219  0.648520902 0 0 0
 444 1 1  0.  30.8085862  25.7502317  0.512690936 -1 0 0
 445 1 4  0.310000002 -31.3798735  26.8212316  0.0672073365 0 0 0
 446 1 5 -0.370000005 -30.2020771  26.6533403 -0.20299345 0 0 0
 447 1 6 -0.310000002 -32.0567457  27.9967868 -0.385356703 0 0 0
 448 1 1  0.25999999 -31.0612409  28.7282146 -1.10569234 0 0 0
 449 1 3  0.109999999 -31.466326  24.6639691  2.15902531 0 0 0
 450 1 2  0. -30.9056015  23.2475354  1.93340742 0 0 0
 451 1 1  0.  31.460238  24.6196451  1.79757745 -1 0 0
 452 1 4  0.310000002 -30.7282217  25.6906451  1.35209385 0 0 0
 453 1 5 -0.370000005 -29.5504254  25.5227538  1.08189307 0 0 0
 454 1 6 -0.310000002 -31.4050939  26.8662003  0.899529812 0 0 0
 455 1 1  0.25999999 -30.4095891  27.5976281  0.17919418 0 0 0
 456 1 3  0.109999999 -30.8146742  23.5333826  3.44391183 0 0 0
 457 1 2  0. -30.2539498  22.1169488  3.21829393 0 0 0
 458 1 1  0.  32.1118897  23.4890586  3.08246397 -1 0 0
 459 1 4  0.310000002 -30.0765699  24.5600586  2.63698037 0 0 0
 460 1 5 -0.370000005 -28.8987736  24.3921673  2.36677958 0 0 0
 461 1 6 -0.310000002 -30.7534422  25.7356138  2.18441633 0 0 0
 462 1 1  0.25999999 -29.7579374  26.4670416  1.4640807 0 0 0
 463 1 3  0.109999999 -30.1630224  22.4027961  4.72879834 0 0 0
 464 1 2  0. -29.602298  20.9863623  4.50318045 0 0 0
 465 1 1  0. -31.6593482  22.3584721  4.36735048 0 0 0
 466 1 4  0.310000002 -29.4249182  23.4294721  3.92186688 0 0 0
 467 1 5 -0.370000005 -28.2471218  23.2615808  3.6516661 0 0 0
 468 1 6 -0.310000002 -30.1017904  24.6050273  3.46930284 0 0 0
 469 1 1  0.25999999 -29.1062856  25.336455  2.74896721 0 0 0
 470 1 3  0.109999999 -29.5113707  21.2722096  6.01368486 0 0 0
 471 1 2  0. -28.9506462  19.8557758  5.78806696 0 0 0
 472 1 1  0. -31.0076965  21.2278856  5.652237 0 0 0
 473 1 4  0.310000002 -28.7732664  22.2988856  5.2067534 0 0 0
 474 1 5 -0.370000005 -27.5954701  22.1309942  4.93655261 0 0 0
 475 1 6 -0.310000002 -29.4501386  23.4744408  4.75418936 0 0 0
 476 1 1  0.25999999 -28.4546338  24.2058685  4.03385373 0 0 0
 477 1 3  0.109999999 -28.8597189  20.1416231  7.29857137 0 0 0
 478 1 2  0. -28.2989945  18.7251893  7.07295348 0 0 0
 479 1 1  0. -30.3560447  20.0972991  6.93712351 0 0 0
 480 1 4  0.310000002 -28.1216146  21.168299  6.49163991 0 0 0
 481 1 5 -0.370000005 -26.9438183  21.0004077  6.22143913 0 0 0
 482 1 6 -0.310000002 -28.7984869  22.3438542  6.03907587 0 0 0
 483 1 1  0.25999999 -27.8029821  23.075282  5.31874024 0 0 0
 484 1 3  0.109999999 -28.2080671  19.0110366  8.58345789 0 0 0
 485 1 2  0. -27.6473427  17.5946028  8.35783999 0 0 0
 486 1 1  0. -29.7043929  18.9667126  8.22201003 0 0 0