
14960 atoms
13281 bonds
20824 angles
24567 dihedrals
1900 impropers
8 atom types
6 bond types
6 angle types
6 dihedral types
1 improper types
-32.7694397 32.7694397 xlo xhi
-32.7694397 32.7694397 ylo yhi
-32.7694397 32.7694397 zlo zhi

Masses

1 12.0107
2 12.0107
3 12.0107
4 12.0107
5 15.9994
6 15.9994
7 26.9815
8 15.9994

Bond Coeffs

1 368 1.539
2 300 1.549
3 326 1.517
4 968 1.209
5 471 1.36
6 342 1.446

Angle Coeffs

1 89.5 113.3
2 87.9 109.47
3 74.5 111.4
4 63.3 125.6
5 126.5 123
6 84.8 116.4

Dihedral Coeffs

1 0.00043047 0.88728 -0.0058908 3.48522 0.0083951
2 -0.69938 0.88749 1.39251 3.48489 0.010033
3 -0.00011517 1.08001 0.00042681 1.76002 -0.00036242
4 1.9005 -0.78234 -3.80681 1.04477 0.0094108
5 2.22989 4.54992 -4.45939 -0.63999 -0.00051598
6 2.20044 1.04739 -4.40604 -1.39492 0.0085622

Improper Coeffs

1 0.735006 0

Atoms

1 1 3 0.109999999 -29.7688499823 -14.1679667033 29.7270520233 1 0 -1
2 1 2 0.0 -28.3868923477 -14.0109998501 30.3960290909 1 0 -1
3 1 1 0.0 -29.7158947931 -14.4031555215 28.1900522587 1 0 -1
4 1 4 0.310000002 -30.4381822011 -15.4056620415 30.2660614249 1 0 -1
5 1 5 -0.370000005 -30.1365880963 -16.5085857168 29.84235669 1 0 -1
6 1 6 -0.310000002 -31.2497599472 -15.1909607033 31.350316956 1 0 -1
7 1 1 0.25999999 -31.7197206058 -16.3749938483 32.0793455671 1 0 -1
8 1 3 0.109999999 -28.3060576397 -13.1955114461 31.6798557359 1 0 -1
9 1 2 0.0 -29.2944965923 -11.9700976485 31.4093528856 1 0 -1
10 1 1 0.0 -28.6753743371 -14.0420382679 -32.6433093557 1 0 0
11 1 4 0.310000002 -26.9025114669 -12.7241372582 31.8298702215 1 0 -1
12 1 5 -0.370000005 -26.2523926506 -11.9549878771 31.1960799211 1 0 -1
13 1 6 -0.310000002 -26.2479469406 -13.7735405383 32.4268813798 1 0 -1
14 1 1 0.25999999 -24.7436654657 -13.7390517694 32.5296377743 1 0 -1
15 1 3 0.109999999 -29.538825466 -10.7889062959 32.4612115615 1 0 -1
16 1 2 0.0 -30.5660663125 -9.67744698887 31.8647056061 1 0 -1
17 1 1 0.0 -28.175230891 -10.0044602493 32.5731359628 1 0 -1
18 1 4 0.310000002 -30.014986397 -11.2314771682 -31.7147395014 1 0 0
19 1 5 -0.370000005 -31.0172798763 -11.8960151331 -31.5203176427 1 0 0
20 1 6 -0.310000002 -29.0471832847 -11.1781507534 -30.6676127464 1 0 0
21 1 1 0.25999999 -29.4985214178 -11.2050329565 -29.2859998596 1 0 0
22 1 3 0.109999999 -32.1511917285 -9.74185324476 31.7439728475 1 0 -1
23 1 2 0.0 -32.7012850704 -9.1651368209 -32.4448867636 1 0 0
24 1 1 0.0 -32.5919883509 -11.2432078765 31.3546434342 1 0 -1
25 1 4 0.310000002 -32.5171635761 -8.89351758879 30.5933477495 1 0 -1
26 1 5 -0.370000005 -31.9199026355 -7.93401378236 30.1864514274 1 0 -1
27 1 6 -0.310000002 31.9444841193 -9.4348583051 29.9536298944 0 0 -1
28 1 1 0.25999999 31.4259217439 -8.76227388789 28.7944858757 0 0 -1
29 1 3 0.109999999 31.3506225912 -9.09103893745 -31.9820413648 0 0 0
30 1 2 0.0 31.2912841388 -8.4447973929 -30.5500062265 0 0 0
31 1 1 0.0 30.5280653593 -8.11424745329 32.6548968288 0 0 -1
32 1 4 0.310000002 30.6478496957 -10.4244846704 -31.9930766301 0 0 0
33 1 5 -0.370000005 31.1630989077 -11.4696202442 -31.6721868157 0 0 0
34 1 6 -0.310000002 29.2967634512 -10.2254617377 -31.7579982357 0 0 0
35 1 1 0.25999999 28.5379926714 -11.4431890234 -31.6934566444 0 0 0
36 1 3 0.109999999 32.258323492 -8.77593575616 -29.3957453423 0 0 0
37 1 2 0.0 31.8424965833 -8.25963463497 -27.9883944597 0 0 0
38 1 1 0.0 32.3617089339 -10.2529139328 -29.1328513069 0 0 0
39 1 4 0.310000002 -31.8371010094 -8.17118635021 -29.6543331426 1 0 0
40 1 5 -0.370000005 -30.8470707803 -8.51402936984 -29.0057649875 1 0 0
41 1 6 -0.310000002 -31.8514343478 -6.97625017339 -30.2542638697 1 0 0
42 1 1 0.25999999 -30.564378355 -6.38590244869 -30.5562191472 1 0 0
43 1 3 0.109999999 30.4275595378 -7.71796180202 -27.6198814224 0 0 0
44 1 2 0.0 30.0830434499 -6.23839057616 -27.9538499778 0 0 0
45 1 1 0.0 30.4275830034 -7.76270610438 -26.0715610015 0 0 0
46 1 4 0.310000002 29.2923208415 -8.6537656265 -28.0263976176 0 0 0
47 1 5 -0.370000005 28.3240314621 -8.41157286505 -28.6668038514 0 0 0
48 1 6 -0.310000002 29.5382998331 -9.83780928795 -27.529727007 0 0 0
49 1 1 0.25999999 28.308332438 -10.6463960646 -27.424950748 0 0 0
50 1 3 0.109999999 31.1004503023 -5.03930043488 -28.1877338178 0 0 0
51 1 2 0.0 30.4391854174 -3.7127703513 -27.8384073304 0 0 0
52 1 1 0.0 31.5155940719 -4.806703707 -29.6162194451 0 0 0
53 1 4 0.310000002 32.4346159632 -5.10146420862 -27.4347876941 0 0 0
54 1 5 -0.370000005 -32.1113953504 -4.54563188568 -27.8683274425 1 0 0
55 1 6 -0.310000002 32.5002585444 -5.63690740581 -26.1812000284 0 0 0
56 1 1 0.25999999 -31.6916685514 -5.71228447091 -25.6075478806 1 0 0
57 1 3 0.109999999 29.5982799581 -3.46035326873 -26.5406485557 0 0 0
58 1 2 0.0 29.1891983518 -1.92852209365 -26.1910086414 0 0 0
59 1 1 0.0 30.1430549289 -3.99857743131 -25.1917723736 0 0 0
60 1 4 0.310000002 28.2473446895 -4.16593290046 -26.7333307529 0 0 0
61 1 5 -0.370000005 27.7342330752 -4.9368844295 -25.9607094629 0 0 0
62 1 6 -0.310000002 27.6412731166 -3.74720250707 -27.8160274868 0 0 0
63 1 1 0.25999999 26.4920021281 -4.42364078568 -28.1878460894 0 0 0
64 1 3 0.109999999 30.1525831924 -0.73579839067 -26.32408367 0 0 0
65 1 2 0.0 29.3960324262 0.449436586023 -25.6401203538 0 0 0
66 1 1 0.0 30.3883172026 -0.42479374598 -27.7906877662 0 0 0
67 1 4 0.310000002 31.5191388879 -0.945334381292 -25.6059101367 0 0 0
68 1 5 -0.370000005 31.6741104662 -1.20220143277 -24.373740947 0 0 0
69 1 6 -0.310000002 32.4380470333 -1.40461333781 -26.5199576662 0 0 0
70 1 1 0.25999999 -31.8586160085 -1.81942040518 -25.8977461231 1 0 0
71 1 3 0.109999999 29.6209444387 2.01895545494 -25.7252080137 0 0 0
72 1 2 0.0 28.7040263893 2.7701685579 -26.7327057072 0 0 0
73 1 1 0.0 29.2927599665 2.56528465816 -24.3383581853 0 0 0
74 1 4 0.310000002 31.0031639932 2.45332919456 -25.8370200616 0 0 0
75 1 5 -0.370000005 31.9898670507 1.79284679514 -25.4885243072 0 0 0
76 1 6 -0.310000002 31.102097995 3.79247179695 -25.6904941466 0 0 0
77 1 1 0.25999999 32.440300363 4.2533448456 -25.9682046436 0 0 0
78 1 3 0.109999999 27.229596964 2.38961673959 -27.0824363601 0 0 0
79 1 2 0.0 26.5433563393 3.67741933256 -27.7402508812 0 0 0
80 1 1 0.0 26.4684304742 2.09012629585 -25.7544264472 0 0 0
81 1 4 0.310000002 27.2472931983 1.16130528539 -27.9562778245 0 0 0
82 1 5 -0.370000005 26.7726862367 0.0884473490786 -27.7386611072 0 0 0
83 1 6 -0.310000002 28.0606110267 1.31226775656 -29.0803657144 0 0 0
84 1 1 0.25999999 28.0378780958 0.379564640326 -30.1962432029 0 0 0
85 1 3 0.109999999 25.2124462935 3.48868178078 -28.5726946409 0 0 0
86 1 2 0.0 24.5146588856 4.91949259507 -28.8231334359 0 0 0
87 1 1 0.0 24.1700139311 2.42163006772 -28.0117485332 0 0 0
88 1 4 0.310000002 25.6317206168 3.03539511931 -30.0251804545 0 0 0
89 1 5 -0.370000005 25.4111176999 1.95786404902 -30.4726693057 0 0 0
90 1 6 -0.310000002 26.2500165954 4.03233469964 -30.7001827533 0 0 0
91 1 1 0.25999999 26.8680404687 3.55192892304 -31.9127781165 0 0 0
92 1 3 0.109999999 23.9655908122 5.87433544394 -27.5907644936 0 0 0
93 1 2 0.0 22.6487006167 6.64093597555 -28.0558613319 0 0 0
94 1 1 0.0 23.6141872516 5.15102617927 -26.3143096085 0 0 0
95 1 4 0.310000002 25.0161762834 6.93332099669 -27.2799964347 0 0 0
96 1 5 -0.370000005 25.9783883149 7.07217414914 -27.9865210891 0 0 0
97 1 6 -0.310000002 24.8184499326 7.47431295713 -26.0264738528 0 0 0
98 1 1 0.25999999 25.8187342969 8.494590853 -25.5420223561 0 0 0
99 1 3 0.109999999 22.273547301 6.98493390742 -29.5185742277 0 0 0
100 1 2 0.0 21.0988822909 8.0683560632 -29.6579344714 0 0 0
101 1 1 0.0 23.375499117 7.70944561571 -30.3297654508 0 0 0
102 1 4 0.310000002 21.7735596607 5.8458142792 -30.3931515812 0 0 0
103 1 5 -0.370000005 21.4275909478 4.74544781666 -29.9284851395 0 0 0
104 1 6 -0.310000002 21.1974295576 6.33115115709 -31.4583760292 0 0 0
105 1 1 0.25999999 20.5784291581 5.39499813734 -32.3269875176 0 0 0
106 1 3 0.109999999 19.8588519586 8.20986310405 -28.6886407754 0 0 0
107 1 2 0.0 18.5988550325 8.9309904135 -29.4257949827 0 0 0
108 1 1 0.0 20.2274211414 8.97109531472 -27.403630754 0 0 0
109 1 4 0.310000002 19.3074857871 6.74677926678 -28.341700601 0 0 0
110 1 5 -0.370000005 19.3891242698 6.18202618802 -27.2899670662 0 0 0
111 1 6 -0.310000002 18.526784389 6.16727846561 -29.3231065901 0 0 0
112 1 1 0.25999999 18.0223203683 4.81325788796 -29.1272567011 0 0 0
113 1 3 0.109999999 18.6696162871 10.2597021134 -30.3241108884 0 0 0
114 1 2 0.0 17.3315749196 10.6139136632 -31.1120019369 0 0 0
115 1 1 0.0 19.7106378997 10.280314336 -31.505201146 0 0 0
116 1 4 0.310000002 18.9687256709 11.4308150229 -29.4020320392 0 0 0
117 1 5 -0.370000005 19.839360611 12.2667257133 -29.6388071964 0 0 0
118 1 6 -0.310000002 18.2434272103 11.4877580472 -28.2806929793 0 0 0
119 1 1 0.25999999 18.7648821903 12.5555545331 -27.4286586409 0 0 0
120 1 3 0.109999999 16.2907203843 9.49242255422 -31.5879280253 0 0 0
121 1 2 0.0 15.2786370851 10.1584276587 -32.6288217434 0 0 0
122 1 1 0.0 15.5651615871 8.81537794552 -30.4473267699 0 0 0
123 1 4 0.310000002 16.9890161214 8.37143382562 -32.3613011853 0 0 0
124 1 5 -0.370000005 16.778597702 7.22964933079 -32.0832734403 0 0 0
125 1 6 -0.310000002 17.7070754519 8.70199338272 32.0607363541 0 0 -1
126 1 1 0.25999999 18.0761435539 7.56649599665 31.1870637067 0 0 -1
127 1 3 0.109999999 14.2192247063 11.2662028377 -32.283199043 0 0 0
128 1 2 0.0 13.4597006687 11.7978662175 31.9200022071 0 0 -1
129 1 1 0.0 14.8527118775 12.492610767 -31.6558537116 0 0 0
130 1 4 0.310000002 13.1132157742 10.7417359289 -31.3099309571 0 0 0
131 1 5 -0.370000005 12.4160493823 9.75500114822 -31.330646168 0 0 0
132 1 6 -0.310000002 12.9295986219 11.6580616239 -30.3383959549 0 0 0
133 1 1 0.25999999 11.9567275895 11.3572380748 -29.2898190348 0 0 0
134 1 3 0.109999999 13.9768200453 11.7946721728 30.4070469468 0 0 -1
135 1 2 0.0 13.4099763773 10.6315970244 29.4191676389 0 0 -1
136 1 1 0.0 13.1306934103 12.9580623709 29.8150141588 0 0 -1
137 1 4 0.310000002 15.3601242601 12.2824913489 30.0898933203 0 0 -1
138 1 5 -0.370000005 16.101543133 12.9308010309 30.7282656682 0 0 -1
139 1 6 -0.310000002 15.5780118564 11.9990618897 28.7637251585 0 0 -1
140 1 1 0.25999999 16.6377645346 12.7016115252 27.995423206 0 0 -1
141 1 3 0.109999999 13.8148572737 9.10342463307 29.4758339052 0 0 -1
142 1 2 0.0 13.2980102163 8.1862662869 28.3165066499 0 0 -1
143 1 1 0.0 15.353999097 8.97044661985 29.5285808343 0 0 -1
144 1 4 0.310000002 13.3324183052 8.50459135023 30.7558857435 0 0 -1
145 1 5 -0.370000005 12.3298449176 8.89725693854 31.3096627983 0 0 -1
146 1 6 -0.310000002 14.1325635765 7.59612970833 31.289108727 0 0 -1
147 1 1 0.25999999 13.6243754914 6.75425909239 32.3449608021 0 0 -1
148 1 3 0.109999999 12.9156348107 8.66791660827 26.8364637021 0 0 -1
149 1 2 0.0 11.6544439808 9.62089526204 26.6804590331 0 0 -1
150 1 1 0.0 12.8486660536 7.28862425296 26.0692001905 0 0 -1
151 1 4 0.310000002 14.1458829671 9.3322877316 26.3075998664 0 0 -1
152 1 5 -0.370000005 14.2813336036 10.5207456349 26.2127133732 0 0 -1
153 1 6 -0.310000002 15.2270337097 8.50948187634 26.5185254784 0 0 -1
154 1 1 0.25999999 16.5627673867 8.97060261406 26.1068692803 0 0 -1
155 1 3 0.109999999 10.1946518855 9.17157850362 26.8447034086 0 0 -1
156 1 2 0.0 9.0038756766 10.2035642362 26.6712972922 0 0 -1
157 1 1 0.0 9.98610144163 8.63108292387 28.2392093395 0 0 -1
158 1 4 0.310000002 9.77494707744 8.09879685911 25.7915542274 0 0 -1
159 1 5 -0.370000005 10.2211822177 8.05029398675 24.6542259328 0 0 -1
160 1 6 -0.310000002 8.55854061707 7.6065374759 26.0983965409 0 0 -1
161 1 1 0.25999999 8.105052479 6.61115921546 25.0927815654 0 0 -1
162 1 3 0.109999999 9.0649513828 11.3669962678 25.6036111706 0 0 -1
163 1 2 0.0 7.56015647148 11.6538867093 25.1244357725 0 0 -1
164 1 1 0.0 9.71533260967 11.0735457168 24.2215687608 0 0 -1
165 1 4 0.310000002 9.70133951687 12.5339361036 26.1852558331 0 0 -1
166 1 5 -0.370000005 9.70199791555 12.6978695242 27.3781006516 0 0 -1
167 1 6 -0.310000002 10.5819357769 13.1966401217 25.3677091673 0 0 -1
168 1 1 0.25999999 11.5727544856 13.8654762232 26.1366622316 0 0 -1
169 1 3 0.109999999 6.89124374202 13.0821419845 24.8718661362 0 0 -1
170 1 2 0.0 5.52533631476 12.8127306936 24.1447048481 0 0 -1
171 1 1 0.0 7.78123815968 14.0995592756 24.0896186309 0 0 -1
172 1 4 0.310000002 6.71338742028 13.6985941626 26.2526659269 0 0 -1
173 1 5 -0.370000005 6.44469746976 14.8560968909 26.5107194768 0 0 -1
174 1 6 -0.310000002 6.35008152816 12.6897364909 27.0969958096 0 0 -1
175 1 1 0.25999999 5.97446879445 13.1940540348 28.4331582496 0 0 -1
176 1 3 0.109999999 4.22298372948 13.7441170906 23.9237615268 0 0 -1
177 1 2 0.0 3.3327814145 13.9220537789 25.2256622387 0 0 -1
178 1 1 0.0 4.71405745044 15.1538136742 23.5029305654 0 0 -1
179 1 4 0.310000002 3.51292590091 13.351032163 22.6287618706 0 0 -1
180 1 5 -0.370000005 2.93870299086 14.0729506097 21.8638342921 0 0 -1
181 1 6 -0.310000002 3.29432337369 12.0300750949 22.560883605 0 0 -1
182 1 1 0.25999999 2.45894207252 11.6566321402 21.4866992634 0 0 -1
183 1 3 0.109999999 2.15050766219 13.0332171633 25.6275444778 0 0 -1
184 1 2 0.0 1.81716591874 13.6110360362 27.0384734432 0 0 -1
185 1 1 0.0 2.48966851075 11.5627494714 25.6170017091 0 0 -1
186 1 4 0.310000002 1.11621855337 13.3149280483 24.6196471329 0 0 -1
187 1 5 -0.370000005 0.901370289014 14.3708958929 24.1437026983 0 0 -1
188 1 6 -0.310000002 0.328583804172 12.2652193909 24.4697818826 0 0 -1
189 1 1 0.25999999 -0.414494767763 12.4855758159 23.2176586523 0 0 -1
190 1 3 0.109999999 0.509313649036 13.2092268452 27.778291686 0 0 -1
191 1 2 0.0 -0.824956950285 13.6562465984 27.0976134262 0 0 -1
192 1 1 0.0 0.534314272831 13.914972401 29.1518695724 0 0 -1
193 1 4 0.310000002 0.458976914773 11.6937223555 28.0473687317 0 0 -1
194 1 5 -0.370000005 -0.21210373876 10.954601127 27.4203297107 0 0 -1
195 1 6 -0.310000002 1.38805000617 11.2768537681 28.959736459 0 0 -1
196 1 1 0.25999999 1.39970462058 9.86550934226 29.3985871433 0 0 -1
197 1 3 0.109999999 -1.25234832379 15.137425311 26.7647620792 0 0 -1
198 1 2 0.0 -2.05629016553 15.8432152695 28.0366760324 0 0 -1
199 1 1 0.0 -0.0983690103225 16.1632691296 26.4828122772 0 0 -1
200 1 4 0.310000002 -2.17677690082 15.1406658734 25.512312264 0 0 -1
201 1 5 -0.370000005 -2.37191550865 16.1998050719 24.9230749777 0 0 -1
202 1 6 -0.310000002 -2.78395409932 13.9479681513 25.268733636 0 0 -1
203 1 1 0.25999999 -3.94151925533 14.0026859903 24.3764226451 0 0 -1
204 1 3 0.109999999 -3.37703127221 15.2623348701 28.675683885 0 0 -1
205 1 2 0.0 -3.67184203837 16.044627498 30.0561245797 0 0 -1
206 1 1 0.0 -4.56790701117 15.3669203692 27.7717308402 0 0 -1
207 1 4 0.310000002 -3.19897608799 13.8434743791 29.0582537604 0 0 -1
208 1 5 -0.370000005 -3.62487503634 12.8706516163 28.4413223633 0 0 -1
209 1 6 -0.310000002 -2.74066296499 13.8044281146 30.3855080768 0 0 -1
210 1 1 0.25999999 -2.61015225156 12.4973813983 31.0689645545 0 0 -1
211 1 3 0.109999999 -4.68173817646 17.2392690188 30.1703904199 0 0 -1
212 1 2 0.0 -4.41853892374 18.4914414784 29.1247595269 0 0 -1
213 1 1 0.0 -4.57623706569 17.7214548791 31.6249315621 0 0 -1
214 1 4 0.310000002 -6.12746975738 16.8100391333 30.045447715 0 0 -1
215 1 5 -0.370000005 -6.67114908877 16.0737527027 30.7980404957 0 0 -1
216 1 6 -0.310000002 -6.778152348 17.5560370694 29.0901744354 0 0 -1
217 1 1 0.25999999 -8.22883531651 17.6755523214 29.190619486 0 0 -1
218 1 3 0.109999999 -3.07861650286 19.3220007248 29.0622138085 0 0 -1
219 1 2 0.0 -3.25659776452 20.8450014066 29.4623168271 0 0 -1
220 1 1 0.0 -1.9035807247 18.7037871431 29.9049773515 0 0 -1
221 1 4 0.310000002 -2.56085219783 19.2958794394 27.6817876239 0 0 -1
222 1 5 -0.370000005 -2.92139079833 18.6068183835 26.7919118287 0 0 -1
223 1 6 -0.310000002 -1.46116810589 20.1792812114 27.493456062 0 0 -1
224 1 1 0.25999999 -1.03623050314 20.2713963356 26.1448236691 0 0 -1
225 1 3 0.109999999 -3.75498863825 21.4131631366 30.7996389867 0 0 -1
226 1 2 0.0 -3.66139693378 22.9468786468 30.7290716332 0 0 -1
227 1 1 0.0 -2.8542086766 21.0365542737 32.0357091696 0 0 -1
228 1 4 0.310000002 -5.17954085664 20.9320054201 31.173341036 0 0 -1
229 1 5 -0.370000005 -6.04638232736 20.6018591596 30.3934683206 0 0 -1
230 1 6 -0.310000002 -5.56427026783 21.6111961302 32.2557965656 0 0 -1
231 1 1 0.25999999 -6.95292662095 21.8619659071 32.449881839 0 0 -1
232 1 3 0.109999999 -4.27710221957 23.8183061637 29.600743721 0 0 -1
233 1 2 0.0 -4.33498918214 25.3634763404 29.9105595948 0 0 -1
234 1 1 0.0 -5.62980858238 23.3235232524 28.9742005518 0 0 -1
235 1 4 0.310000002 -3.2721573682 23.809516675 28.5111953059 0 0 -1
236 1 5 -0.370000005 -2.13219696724 24.0908083549 28.7354821839 0 0 -1
237 1 6 -0.310000002 -3.8573526691 24.1654378006 27.3534333356 0 0 -1
238 1 1 0.25999999 -3.04919622661 24.5572314925 26.2025614114 0 0 -1
239 1 3 0.109999999 -5.23345163885 25.9849163865 31.0282494434 0 0 -1
240 1 2 0.0 -5.09663773464 27.6167553084 31.2015914726 0 0 -1
241 1 1 0.0 -6.77232054411 25.7180286505 30.9068845413 0 0 -1
242 1 4 0.310000002 -4.87039885525 25.3558436512 32.3818890286 0 0 -1
243 1 5 -0.370000005 -5.53199548035 24.4399124581 -32.7249227942 0 0 0
244 1 6 -0.310000002 -3.60406161597 25.5818377014 -32.7465473624 0 0 0
245 1 1 0.25999999 -3.12141933871 24.7590821732 -31.6467837768 0 0 0
246 1 3 0.109999999 -4.7265022509 28.5666759494 30.0303486518 0 0 -1
247 1 2 0.0 -4.99424227422 30.0948595131 30.4818551602 0 0 -1
248 1 1 0.0 -5.3719360062 28.2599210902 28.6356096006 0 0 -1
249 1 4 0.310000002 -3.23976235881 28.4643311945 29.7276927338 0 0 -1
250 1 5 -0.370000005 -2.38982147824 28.0681233597 30.4768068168 0 0 -1
251 1 6 -0.310000002 -2.82623571845 29.0887418559 28.6244535944 0 0 -1
252 1 1 0.25999999 -1.42576733908 29.2940539214 28.7195888428 0 0 -1
253 1 3 0.109999999 -6.42031358548 30.7727679609 30.2628221065 0 0 -1
254 1 2 0.0 -6.47581214995 32.2210928917 30.8994066349 0 0 -1
255 1 1 0.0 -6.66920082516 31.111827091 28.8252907112 0 0 -1
256 1 4 0.310000002 -7.56843467186 30.0080409533 30.847505095 0 0 -1
257 1 5 -0.370000005 -7.57189586372 29.3173145337 31.8881316268 0 0 -1
258 1 6 -0.310000002 -8.61354380976 29.9136223173 30.0005407556 0 0 -1
259 1 1 0.25999999 -9.6444126574 29.0548120446 30.4766116097 0 0 -1
260 1 3 0.109999999 -5.95232333082 32.6400453897 32.3243355282 0 0 -1
261 1 2 0.0 -6.85635460791 32.106138097 -32.0323349509 0 0 0
262 1 1 0.0 -6.07626662229 -31.4064676925 32.3023976453 0 1 -1
263 1 4 0.310000002 -4.4934681825 32.4311026034 32.6166025551 0 0 -1
264 1 5 -0.370000005 -3.63707239808 32.4482828467 31.7329640109 0 0 -1
265 1 6 -0.310000002 -4.28635681898 32.7059376531 -31.652314268 0 0 0
266 1 1 0.25999999 -2.99923693707 32.3337078969 -31.1489713452 0 0 0
267 1 3 0.109999999 -8.38554727978 32.5902612939 -31.6842288025 0 0 0
268 1 2 0.0 -8.64493617112 -31.426186626 -31.0483604026 0 1 0
269 1 1 0.0 -8.95521995066 31.4630788884 -30.8010099475 0 0 0
270 1 4 0.310000002 -9.20403798973 32.635526248 32.6171161907 0 0 -1
271 1 5 -0.370000005 -10.0797784574 31.82707177 32.4490346675 0 0 -1
272 1 6 -0.310000002 -9.33273904264 -31.6685656677 32.1383999441 0 1 -1
273 1 1 0.25999999 -10.3970186477 -31.3839429779 31.1224562454 0 1 -1
274 1 3 0.109999999 -8.41727054035 -31.0809506669 -29.5007249442 0 1 0
275 1 2 0.0 -9.70736195991 -31.1422880283 -28.631995061 0 1 0
276 1 1 0.0 -7.35647947667 -31.9142776267 -28.7969184099 0 1 0
277 1 4 0.310000002 -7.7975038682 -29.679869614 -29.5047318346 0 1 0
278 1 5 -0.370000005 -8.11233027552 -28.7271388428 -30.128960369 0 1 0
279 1 6 -0.310000002 -7.09927307948 -29.5111789908 -28.3600263563 0 1 0
280 1 1 0.25999999 -6.19019458089 -28.3834127351 -28.2132063587 0 1 0
281 1 3 0.109999999 -11.2317442942 -30.7334994125 -29.1224655144 0 1 0
282 1 2 0.0 -12.249199822 -30.6225759931 -27.9238226828 0 1 0
283 1 1 0.0 -11.1321235754 -29.292882601 -29.7835424275 0 1 0
284 1 4 0.310000002 -11.808231885 -31.7632954614 -30.0349211612 0 1 0
285 1 5 -0.370000005 -12.1366993102 -31.5773694697 -31.1824484546 0 1 0
286 1 6 -0.310000002 -11.9527912576 32.5451540743 -29.4414613228 0 0 0
287 1 1 0.25999999 -12.6974082957 31.5864247351 -30.2430465558 0 0 0
288 1 3 0.109999999 -12.1217493954 -31.2327235373 -26.4730824303 0 1 0
289 1 2 0.0 -13.4549867797 -31.1233579517 -25.5637970538 0 1 0
290 1 1 0.0 -11.6719159156 -32.6606605717 -26.4743611408 0 1 0
291 1 4 0.310000002 -11.0869084497 -30.3326167143 -25.8128458221 0 1 0
292 1 5 -0.370000005 -10.3462407715 -30.6732010143 -24.9232488843 0 1 0
293 1 6 -0.310000002 -11.7851702379 -29.1584692162 -25.7539723204 0 1 0
294 1 1 0.25999999 -11.3054955241 -28.1495727657 -24.9174282582 0 1 0
295 1 3 0.109999999 -14.9057943017 -31.7681740528 -25.9363101742 0 1 0
296 1 2 0.0 -15.8939673336 -31.2792220297 -24.7798632692 0 1 0
297 1 1 0.0 -15.5225135034 -31.4644405141 -27.3027787553 0 1 0
298 1 4 0.310000002 -14.9156780362 32.2714159258 -25.8550777223 0 0 0
299 1 5 -0.370000005 -14.8307520918 31.6633406524 -24.8278506628 0 0 0
300 1 6 -0.310000002 -14.5294811067 31.7671910016 -27.0586027212 0 0 0
301 1 1 0.25999999 -14.2798217552 30.3446453286 -27.0651243364 0 0 0
302 1 3 0.109999999 -16.5239821264 -29.8594149408 -24.4468222112 0 1 0
303 1 2 0.0 -17.8811134137 -29.9855882211 -23.6116588842 0 1 0
304 1 1 0.0 -16.5500900671 -28.877129302 -25.634524288 0 1 0
305 1 4 0.310000002 -15.5021401905 -29.2709151979 -23.3990610837 0 1 0
306 1 5 -0.370000005 -14.3600718544 -28.9430052863 -23.6363480837 0 1 0
307 1 6 -0.310000002 -16.0032085134 -29.0684437745 -22.159560333 0 1 0
308 1 1 0.25999999 -15.1401116943 -28.5000061051 -21.1108334823 0 1 0
309 1 3 0.109999999 -19.272813139 -30.1645806522 -24.3696076321 0 1 0
310 1 2 0.0 -20.3107203919 -30.796212474 -23.4249567782 0 1 0
311 1 1 0.0 -19.8414111315 -28.8983781682 -24.9262236294 0 1 0
312 1 4 0.310000002 -19.1243447588 -31.1815509498 -25.5275072209 0 1 0
313 1 5 -0.370000005 -18.8675739888 -32.3542590033 -25.449212898 0 1 0
314 1 6 -0.310000002 -19.8824666536 -30.7377317394 -26.615265558 0 1 0
315 1 1 0.25999999 -20.4015990316 -31.7774091318 -27.3861403159 0 1 0
316 1 3 0.109999999 -20.0170779409 -31.6966440817 -22.1256917399 0 1 0
317 1 2 0.0 -21.3292728781 -32.2654428477 -21.5142692494 0 1 0
318 1 1 0.0 -19.1465889687 32.5217548304 -22.2566308803 0 0 0
319 1 4 0.310000002 -19.390987507 -30.8432760247 -20.9891383366 0 1 0
320 1 5 -0.370000005 -18.6168964305 -31.3139174945 -20.1566097316 0 1 0
321 1 6 -0.310000002 -20.0326729881 -29.7050389891 -20.8130359258 0 1 0
322 1 1 0.25999999 -19.5674849138 -28.9194529402 -19.6795942544 0 1 0
323 1 3 0.109999999 -22.55026878 32.6916073191 -22.3572313139 0 0 0
324 1 2 0.0 -23.5419774631 32.0987477838 -21.1870401881 0 0 0
325 1 1 0.0 -22.1711700108 31.5223812942 -23.3484507224 0 0 0
326 1 4 0.310000002 -23.3450744117 -31.7413333222 -23.0992617375 0 1 0
327 1 5 -0.370000005 -23.7753644244 -30.7200624594 -22.6410723738 0 1 0
328 1 6 -0.310000002 -23.2615807619 -31.8299157779 -24.4284329161 0 1 0
329 1 1 0.25999999 -23.8779427604 -30.7683295863 -25.1389970274 0 1 0
330 1 3 0.109999999 -24.8711110191 31.3520589686 -21.3310006851 0 0 0
331 1 2 0.0 -24.5950818248 29.8801384002 -21.7693479696 0 0 0
332 1 1 0.0 -25.8339050382 32.1885847931 -22.2176406936 0 0 0
333 1 4 0.310000002 -25.4875704325 31.3730139099 -19.9585011594 0 0 0
334 1 5 -0.370000005 -26.4286479418 32.0755952617 -19.6330451747 0 0 0
335 1 6 -0.310000002 -24.8591731011 30.5681916047 -19.0940207986 0 0 0
336 1 1 0.25999999 -25.2136461245 30.8285902412 -17.7189287334 0 0 0
337 1 3 0.109999999 -25.6254284599 28.8321114166 -22.2787144135 0 0 0
338 1 2 0.0 -25.0648908795 27.3879708744 -22.4197911627 0 0 0
339 1 1 0.0 -26.9602893728 28.8964180562 -21.5408296023 0 0 0
340 1 4 0.310000002 -25.9067696285 29.3017903047 -23.720593461 0 0 0
341 1 5 -0.370000005 -26.8743074627 29.9741438465 -24.0372096527 0 0 0
342 1 6 -0.310000002 -24.8193391209 29.2142206784 -24.4452955273 0 0 0
343 1 1 0.25999999 -24.8785846911 29.6599564256 -25.8458109206 0 0 0
344 1 3 0.109999999 -24.3181414265 26.5912018226 -21.1848713941 0 0 0
345 1 2 0.0 -24.0197623035 25.0625233975 -21.6377437025 0 0 0
346 1 1 0.0 -22.9309417695 27.1404214721 -20.9663227719 0 0 0
347 1 4 0.310000002 -25.1535363077 26.7063447264 -19.9467557502 0 0 0
348 1 5 -0.370000005 -26.2992164232 26.2838741836 -19.7817027564 0 0 0
349 1 6 -0.310000002 -24.2391375933 26.7743155754 -18.8997379761 0 0 0
350 1 1 0.25999999 -24.6963715723 26.5588301036 -17.5500694832 0 0 0
351 1 3 0.109999999 -24.9812949479 23.8264474764 -21.6200964411 0 0 0
352 1 2 0.0 -25.4744915146 23.4631071931 -20.1748073941 0 0 0
353 1 1 0.0 -24.0453341832 22.7529561868 -22.3087898407 0 0 0
354 1 4 0.310000002 -26.1504322356 24.1247031384 -22.5600804119 0 0 0
355 1 5 -0.370000005 -27.2044372651 24.6297609628 -22.2573229754 0 0 0
356 1 6 -0.310000002 -25.6704671606 24.2089215969 -23.8320599544 0 0 0
357 1 1 0.25999999 -26.5416451213 24.8692438043 -24.6998314334 0 0 0
358 1 3 0.109999999 -25.6084648139 21.9595264519 -19.7073355732 0 0 0
359 1 2 0.0 -26.3019222281 21.9750506853 -18.3471752112 0 0 0
360 1 1 0.0 -26.5097367553 21.1204736428 -20.7535157609 0 0 0
361 1 4 0.310000002 -24.2455356546 21.3692513776 -19.3955429697 0 0 0
362 1 5 -0.370000005 -23.4594411119 21.8591298022 -18.5912431568 0 0 0
363 1 6 -0.310000002 -24.004284847 20.2249050571 -20.105182514 0 0 0
364 1 1 0.25999999 -22.6301108395 19.8911757907 -20.265195175 0 0 0
365 1 3 0.109999999 -27.0665503977 20.7603724066 -17.6742609423 0 0 0
366 1 2 0.0 -27.1729492671 20.779331108 -16.1454080969 0 0 0
367 1 1 0.0 -28.4621219952 20.5647479289 -18.3713004174 0 0 0
368 1 4 0.310000002 -26.210851859 19.4806547287 -17.9003421612 0 0 0
369 1 5 -0.370000005 -26.639264001 18.4211445136 -18.3163120003 0 0 0
370 1 6 -0.310000002 -25.1904234036 19.5315278211 -16.9958732061 0 0 0
371 1 1 0.25999999 -24.2227185669 18.4901268236 -17.0258787663 0 0 0
372 1 3 0.109999999 -27.7730836616 21.8545178272 -15.187130014 0 0 0
373 1 2 0.0 -27.7768447789 21.3384874982 -13.6843877615 0 0 0
374 1 1 0.0 -27.0091762072 23.1514972778 -15.2658489721 0 0 0
375 1 4 0.310000002 -29.2319521952 22.1104646908 -15.4887363708 0 0 0
376 1 5 -0.370000005 -29.8218925547 23.0896698748 -15.1909385003 0 0 0
377 1 6 -0.310000002 -29.9088170546 20.9156030423 -15.6404337254 0 0 0
378 1 1 0.25999999 -31.3071785469 21.1907628023 -15.6655557424 0 0 0
379 1 3 0.109999999 -26.6502345699 20.6196307321 -12.9135775078 0 0 0
380 1 2 0.0 -27.2055844072 20.0103354096 -11.6198482828 0 0 0
381 1 1 0.0 -25.4369844146 21.5603427426 -12.6041262654 0 0 0
382 1 4 0.310000002 -26.0839738184 19.3821834474 -13.6761442402 0 0 0
383 1 5 -0.370000005 -24.918448239 19.1272591159 -13.7505469666 0 0 0
384 1 6 -0.310000002 -27.0551715812 18.4896279188 -13.8292880428 0 0 0
385 1 1 0.25999999 -26.7140452846 17.1793290201 -14.2411807077 0 0 0
386 1 3 0.109999999 -27.4532324322 20.6535626892 -10.252415776 0 0 0
387 1 2 0.0 -28.4200097767 19.8574962209 -9.28896505235 0 0 0
388 1 1 0.0 -28.1190595864 22.0242812179 -10.3810199964 0 0 0
389 1 4 0.310000002 -26.1372137584 20.6528691634 -9.43767989279 0 0 0
390 1 5 -0.370000005 -25.9000075929 21.3783735083 -8.49961050724 0 0 0
391 1 6 -0.310000002 -25.5035628812 19.4440640608 -9.74003551122 0 0 0
392 1 1 0.25999999 -24.2350347303 19.1051380804 -9.29225983008 0 0 0
393 1 3 0.109999999 -28.9131548463 18.3910732671 -9.54318244601 0 0 0
394 1 2 0.0 -29.6823686609 17.8006036335 -8.29873280027 0 0 0
395 1 1 0.0 -27.6479257821 17.4269347612 -9.7078357324 0 0 0
396 1 4 0.310000002 -29.8444483532 18.2903774079 -10.7484909011 0 0 0
397 1 5 -0.370000005 -30.3811605691 19.2912099541 -11.2186062136 0 0 0
398 1 6 -0.310000002 -29.3534276911 17.2921430159 -11.4642358936 0 0 0
399 1 1 0.25999999 -29.9233453981 17.2826104347 -12.6868265144 0 0 0
400 1 3 0.109999999 -30.9221207145 18.3966485444 -7.5610020834 0 0 0
401 1 2 0.0 -30.5748792776 19.3183877014 -6.39159067992 0 0 0
402 1 1 0.0 -31.8449699857 19.3054586259 -8.47754426617 0 0 0
403 1 4 0.310000002 -31.8444282754 17.2350175766 -7.20425121225 0 0 0
404 1 5 -0.370000005 32.4866501144 17.3553328156 -6.99329420437 -1 0 0
405 1 6 -0.310000002 -31.2577805982 16.1195551347 -6.85006015064 0 0 0
406 1 1 0.25999999 -32.141097821 15.1713829438 -6.30758596842 0 0 0
407 1 3 0.109999999 -29.7548813698 18.940837235 -5.04496905139 0 0 0
408 1 2 0.0 -29.7528706399 20.2115167545 -4.13816472194 0 0 0
409 1 1 0.0 -30.2190327965 17.6752957902 -4.32389314473 0 0 0
410 1 4 0.310000002 -28.2787565041 18.6356410386 -5.44249862276 0 0 0
411 1 5 -0.370000005 -27.6712219275 17.663266176 -4.96416124031 0 0 0
412 1 6 -0.310000002 -27.681957347 19.847176881 -5.726594841 0 0 0
413 1 1 0.25999999 -26.229555516 19.9623795963 -5.65415022157 0 0 0
414 1 3 0.109999999 -30.946690876 20.7215631989 -3.2650881456 0 0 0
415 1 2 0.0 -30.9127915073 22.2505625771 -3.12993726343 0 0 0
416 1 1 0.0 -32.3427131339 20.3431186755 -3.81216785166 0 0 0
417 1 4 0.310000002 -30.8673331678 20.1272475647 -1.78389355012 0 0 0
418 1 5 -0.370000005 -29.9819323572 19.5589250307 -1.22511157007 0 0 0
419 1 6 -0.310000002 -31.9944988228 20.4788610265 -1.06933616699 0 0 0
420 1 1 0.25999999 -31.9615952443 20.2723133549 0.372910288741 0 0 0
421 1 3 0.109999999 -29.6361812218 23.1821463825 -2.99498469182 0 0 0
422 1 2 0.0 -30.0192432062 24.7039555087 -2.76858827732 0 0 0
423 1 1 0.0 -28.8529772698 22.8004866198 -1.72923672884 0 0 0
424 1 4 0.310000002 -28.625598345 23.1384559943 -4.21786686967 0 0 0
425 1 5 -0.370000005 -27.4313649265 23.4033109587 -4.18560446418 0 0 0
426 1 6 -0.310000002 -29.2512164882 22.9244665776 -5.41126239598 0 0 0
427 1 1 0.25999999 -28.3514326171 23.035337864 -6.55392029571 0 0 0
428 1 3 0.109999999 -31.0127146883 25.6168472235 -3.5846705279 0 0 0
429 1 2 0.0 -30.9083854569 27.1037247859 -3.12676135309 0 0 0
430 1 1 0.0 -30.7945420804 25.5545223215 -5.02465441184 0 0 0
431 1 4 0.310000002 -32.4334905299 25.0816978186 -3.31268764846 0 0 0
432 1 5 -0.370000005 32.1467551575 25.1658599034 -4.10686955837 -1 0 0
433 1 6 -0.310000002 -32.504291191 24.7238111959 -2.04873681743 0 0 0